V -t * -v 1.0a5 -a 0
A -t * -n 1 -p 0 -o 0x7fffffff -c 30 -a 1
A -t * -h 1 -m 1073741823 -s 0
c -t * -i 1 -n Red
n -t * -a 17 -s 17 -S UP -v circle -c black -i black
n -t * -a 0 -s 0 -S UP -v circle -c black -i black
n -t * -a 18 -s 18 -S UP -v circle -c black -i black
n -t * -a 1 -s 1 -S UP -v circle -c black -i black
n -t * -a 19 -s 19 -S UP -v circle -c black -i black
n -t * -a 2 -s 2 -S UP -v circle -c black -i black
n -t * -a 3 -s 3 -S UP -v circle -c black -i black
n -t * -a 4 -s 4 -S UP -v circle -c black -i black
n -t * -a 5 -s 5 -S UP -v circle -c black -i black
n -t * -a 6 -s 6 -S UP -v circle -c black -i black
n -t * -a 7 -s 7 -S UP -v circle -c black -i black
n -t * -a 8 -s 8 -S UP -v circle -c black -i black
n -t * -a 9 -s 9 -S UP -v circle -c black -i black
n -t * -a 10 -s 10 -S UP -v circle -c black -i black
n -t * -a 11 -s 11 -S UP -v circle -c black -i black
n -t * -a 12 -s 12 -S UP -v circle -c black -i black
n -t * -a 13 -s 13 -S UP -v circle -c black -i black
n -t * -a 14 -s 14 -S UP -v circle -c black -i black
n -t * -a 15 -s 15 -S UP -v circle -c black -i black
n -t * -a 16 -s 16 -S UP -v circle -c black -i black
l -t * -s 0 -d 1 -S UP -r 6000000 -D 0.012 -c black -o down
l -t * -s 1 -d 2 -S UP -r 15000000 -D 0.02 -c black -o down
l -t * -s 2 -d 4 -S UP -r 11000000 -D 0.014999999999999999 -c black -o right-up
l -t * -s 3 -d 4 -S UP -r 15000000 -D 0.013000000000000001 -c black -o down
l -t * -s 3 -d 6 -S UP -r 8000000 -D 0.019 -c black -o right
l -t * -s 4 -d 7 -S UP -r 13000000 -D 0.012 -c black -o right
l -t * -s 0 -d 4 -S UP -r 15000000 -D 0.019 -c black -o right-down
l -t * -s 4 -d 6 -S UP -r 12000000 -D 0.01 -c black -o right-up
l -t * -s 4 -d 5 -S UP -r 15000000 -D 0.018000000000000002 -c black -o right-down
l -t * -s 7 -d 5 -S UP -r 20000000 -D 0.019 -c black -o down
l -t * -s 6 -d 8 -S UP -r 9000000 -D 0.016 -c black -o right
l -t * -s 7 -d 8 -S UP -r 19000000 -D 0.017000000000000001 -c black -o right-up
l -t * -s 5 -d 9 -S UP -r 17000000 -D 0.02 -c black -o right-up
l -t * -s 9 -d 11 -S UP -r 5000000 -D 0.013000000000000001 -c black -o right-up
l -t * -s 8 -d 11 -S UP -r 18000000 -D 0.010999999999999999 -c black -o right
l -t * -s 5 -d 10 -S UP -r 13000000 -D 0.018000000000000002 -c black -o right
l -t * -s 10 -d 12 -S UP -r 15000000 -D 0.013000000000000001 -c black -o right
l -t * -s 9 -d 12 -S UP -r 8000000 -D 0.014999999999999999 -c black -o right-down
l -t * -s 9 -d 14 -S UP -r 16000000 -D 0.012 -c black -o right
l -t * -s 11 -d 13 -S UP -r 8000000 -D 0.018000000000000002 -c black -o right
l -t * -s 12 -d 15 -S UP -r 11000000 -D 0.019 -c black -o right
l -t * -s 14 -d 16 -S UP -r 6000000 -D 0.014 -c black -o right-up
l -t * -s 14 -d 17 -S UP -r 20000000 -D 0.013000000000000001 -c black -o right-up
l -t * -s 14 -d 18 -S UP -r 18000000 -D 0.016 -c black -o right
l -t * -s 14 -d 19 -S UP -r 9000000 -D 0.0050000000000000001 -c black -o right-down
l -t * -s 15 -d 19 -S UP -r 20000000 -D 0.018000000000000002 -c black -o right
l -t * -s 16 -d 17 -S UP -r 8000000 -D 0.010999999999999999 -c black -o right
l -t * -s 17 -d 18 -S UP -r 11000000 -D 0.018000000000000002 -c black -o down
n -t 0 -s 0 -S COLOR -c chocolate -o black -i chocolate -I black
n -t 0 -s 17 -S COLOR -c chocolate -o black -i chocolate -I black
+ -t 0.000169788487334637 -s 0 -d 1 -p rtProtoDV -e 20 -c 0 -i 0 -a 0 -x {0.2 1.1 -1 ------- null}
- -t 0.000169788487334637 -s 0 -d 1 -p rtProtoDV -e 20 -c 0 -i 0 -a 0 -x {0.2 1.1 -1 ------- null}
h -t 0.000169788487334637 -s 0 -d 1 -p rtProtoDV -e 20 -c 0 -i 0 -a 0 -x {0.2 1.1 -1 ------- null}
+ -t 0.000169788487334637 -s 0 -d 4 -p rtProtoDV -e 20 -c 0 -i 1 -a 0 -x {0.2 4.1 -1 ------- null}
- -t 0.000169788487334637 -s 0 -d 4 -p rtProtoDV -e 20 -c 0 -i 1 -a 0 -x {0.2 4.1 -1 ------- null}
h -t 0.000169788487334637 -s 0 -d 4 -p rtProtoDV -e 20 -c 0 -i 1 -a 0 -x {0.2 4.1 -1 ------- null}
+ -t 0.00710233021858257 -s 2 -d 1 -p rtProtoDV -e 20 -c 0 -i 2 -a 0 -x {2.1 1.1 -1 ------- null}
- -t 0.00710233021858257 -s 2 -d 1 -p rtProtoDV -e 20 -c 0 -i 2 -a 0 -x {2.1 1.1 -1 ------- null}
h -t 0.00710233021858257 -s 2 -d 1 -p rtProtoDV -e 20 -c 0 -i 2 -a 0 -x {2.1 1.1 -1 ------- null}
+ -t 0.00710233021858257 -s 2 -d 4 -p rtProtoDV -e 20 -c 0 -i 3 -a 0 -x {2.1 4.1 -1 ------- null}
- -t 0.00710233021858257 -s 2 -d 4 -p rtProtoDV -e 20 -c 0 -i 3 -a 0 -x {2.1 4.1 -1 ------- null}
h -t 0.00710233021858257 -s 2 -d 4 -p rtProtoDV -e 20 -c 0 -i 3 -a 0 -x {2.1 4.1 -1 ------- null}
r -t 0.0121964551540013 -s 0 -d 1 -p rtProtoDV -e 20 -c 0 -i 0 -a 0 -x {0.2 1.1 -1 ------- null}
+ -t 0.0121964551540013 -s 1 -d 0 -p rtProtoDV -e 20 -c 0 -i 4 -a 0 -x {1.1 0.2 -1 ------- null}
- -t 0.0121964551540013 -s 1 -d 0 -p rtProtoDV -e 20 -c 0 -i 4 -a 0 -x {1.1 0.2 -1 ------- null}
h -t 0.0121964551540013 -s 1 -d 0 -p rtProtoDV -e 20 -c 0 -i 4 -a 0 -x {1.1 0.2 -1 ------- null}
+ -t 0.0121964551540013 -s 1 -d 2 -p rtProtoDV -e 20 -c 0 -i 5 -a 0 -x {1.1 2.1 -1 ------- null}
- -t 0.0121964551540013 -s 1 -d 2 -p rtProtoDV -e 20 -c 0 -i 5 -a 0 -x {1.1 2.1 -1 ------- null}
h -t 0.0121964551540013 -s 1 -d 2 -p rtProtoDV -e 20 -c 0 -i 5 -a 0 -x {1.1 2.1 -1 ------- null}
r -t 0.0191804551540013 -s 0 -d 4 -p rtProtoDV -e 20 -c 0 -i 1 -a 0 -x {0.2 4.1 -1 ------- null}
+ -t 0.0191804551540013 -s 4 -d 0 -p rtProtoDV -e 20 -c 0 -i 6 -a 0 -x {4.1 0.2 -1 ------- null}
- -t 0.0191804551540013 -s 4 -d 0 -p rtProtoDV -e 20 -c 0 -i 6 -a 0 -x {4.1 0.2 -1 ------- null}
h -t 0.0191804551540013 -s 4 -d 0 -p rtProtoDV -e 20 -c 0 -i 6 -a 0 -x {4.1 0.2 -1 ------- null}
+ -t 0.0191804551540013 -s 4 -d 2 -p rtProtoDV -e 20 -c 0 -i 7 -a 0 -x {4.1 2.1 -1 ------- null}
- -t 0.0191804551540013 -s 4 -d 2 -p rtProtoDV -e 20 -c 0 -i 7 -a 0 -x {4.1 2.1 -1 ------- null}
h -t 0.0191804551540013 -s 4 -d 2 -p rtProtoDV -e 20 -c 0 -i 7 -a 0 -x {4.1 2.1 -1 ------- null}
+ -t 0.0191804551540013 -s 4 -d 3 -p rtProtoDV -e 20 -c 0 -i 8 -a 0 -x {4.1 3.1 -1 ------- null}
- -t 0.0191804551540013 -s 4 -d 3 -p rtProtoDV -e 20 -c 0 -i 8 -a 0 -x {4.1 3.1 -1 ------- null}
h -t 0.0191804551540013 -s 4 -d 3 -p rtProtoDV -e 20 -c 0 -i 8 -a 0 -x {4.1 3.1 -1 ------- null}
+ -t 0.0191804551540013 -s 4 -d 5 -p rtProtoDV -e 20 -c 0 -i 9 -a 0 -x {4.1 5.1 -1 ------- null}
- -t 0.0191804551540013 -s 4 -d 5 -p rtProtoDV -e 20 -c 0 -i 9 -a 0 -x {4.1 5.1 -1 ------- null}
h -t 0.0191804551540013 -s 4 -d 5 -p rtProtoDV -e 20 -c 0 -i 9 -a 0 -x {4.1 5.1 -1 ------- null}
+ -t 0.0191804551540013 -s 4 -d 6 -p rtProtoDV -e 20 -c 0 -i 10 -a 0 -x {4.1 6.1 -1 ------- null}
- -t 0.0191804551540013 -s 4 -d 6 -p rtProtoDV -e 20 -c 0 -i 10 -a 0 -x {4.1 6.1 -1 ------- null}
h -t 0.0191804551540013 -s 4 -d 6 -p rtProtoDV -e 20 -c 0 -i 10 -a 0 -x {4.1 6.1 -1 ------- null}
+ -t 0.0191804551540013 -s 4 -d 7 -p rtProtoDV -e 20 -c 0 -i 11 -a 0 -x {4.1 7.1 -1 ------- null}
- -t 0.0191804551540013 -s 4 -d 7 -p rtProtoDV -e 20 -c 0 -i 11 -a 0 -x {4.1 7.1 -1 ------- null}
h -t 0.0191804551540013 -s 4 -d 7 -p rtProtoDV -e 20 -c 0 -i 11 -a 0 -x {4.1 7.1 -1 ------- null}
+ -t 0.0213972786541084 -s 13 -d 11 -p rtProtoDV -e 20 -c 0 -i 12 -a 0 -x {13.1 11.1 -1 ------- null}
- -t 0.0213972786541084 -s 13 -d 11 -p rtProtoDV -e 20 -c 0 -i 12 -a 0 -x {13.1 11.1 -1 ------- null}
h -t 0.0213972786541084 -s 13 -d 11 -p rtProtoDV -e 20 -c 0 -i 12 -a 0 -x {13.1 11.1 -1 ------- null}
r -t 0.022116875673128 -s 2 -d 4 -p rtProtoDV -e 20 -c 0 -i 3 -a 0 -x {2.1 4.1 -1 ------- null}
r -t 0.024223121820668 -s 1 -d 0 -p rtProtoDV -e 20 -c 0 -i 4 -a 0 -x {1.1 0.2 -1 ------- null}
+ -t 0.024223121820668 -s 0 -d 1 -p rtProtoDV -e 20 -c 0 -i 13 -a 0 -x {0.2 1.1 -1 ------- null}
- -t 0.024223121820668 -s 0 -d 1 -p rtProtoDV -e 20 -c 0 -i 13 -a 0 -x {0.2 1.1 -1 ------- null}
h -t 0.024223121820668 -s 0 -d 1 -p rtProtoDV -e 20 -c 0 -i 13 -a 0 -x {0.2 1.1 -1 ------- null}
+ -t 0.024223121820668 -s 0 -d 4 -p rtProtoDV -e 20 -c 0 -i 14 -a 0 -x {0.2 4.1 -1 ------- null}
- -t 0.024223121820668 -s 0 -d 4 -p rtProtoDV -e 20 -c 0 -i 14 -a 0 -x {0.2 4.1 -1 ------- null}
h -t 0.024223121820668 -s 0 -d 4 -p rtProtoDV -e 20 -c 0 -i 14 -a 0 -x {0.2 4.1 -1 ------- null}
r -t 0.0271129968852492 -s 2 -d 1 -p rtProtoDV -e 20 -c 0 -i 2 -a 0 -x {2.1 1.1 -1 ------- null}
r -t 0.0291937884873346 -s 4 -d 6 -p rtProtoDV -e 20 -c 0 -i 10 -a 0 -x {4.1 6.1 -1 ------- null}
+ -t 0.0291937884873346 -s 6 -d 3 -p rtProtoDV -e 20 -c 0 -i 15 -a 0 -x {6.1 3.1 -1 ------- null}
- -t 0.0291937884873346 -s 6 -d 3 -p rtProtoDV -e 20 -c 0 -i 15 -a 0 -x {6.1 3.1 -1 ------- null}
h -t 0.0291937884873346 -s 6 -d 3 -p rtProtoDV -e 20 -c 0 -i 15 -a 0 -x {6.1 3.1 -1 ------- null}
+ -t 0.0291937884873346 -s 6 -d 4 -p rtProtoDV -e 20 -c 0 -i 16 -a 0 -x {6.1 4.1 -1 ------- null}
- -t 0.0291937884873346 -s 6 -d 4 -p rtProtoDV -e 20 -c 0 -i 16 -a 0 -x {6.1 4.1 -1 ------- null}
h -t 0.0291937884873346 -s 6 -d 4 -p rtProtoDV -e 20 -c 0 -i 16 -a 0 -x {6.1 4.1 -1 ------- null}
+ -t 0.0291937884873346 -s 6 -d 8 -p rtProtoDV -e 20 -c 0 -i 17 -a 0 -x {6.1 8.1 -1 ------- null}
- -t 0.0291937884873346 -s 6 -d 8 -p rtProtoDV -e 20 -c 0 -i 17 -a 0 -x {6.1 8.1 -1 ------- null}
h -t 0.0291937884873346 -s 6 -d 8 -p rtProtoDV -e 20 -c 0 -i 17 -a 0 -x {6.1 8.1 -1 ------- null}
r -t 0.031192762846309 -s 4 -d 7 -p rtProtoDV -e 20 -c 0 -i 11 -a 0 -x {4.1 7.1 -1 ------- null}
+ -t 0.031192762846309 -s 7 -d 4 -p rtProtoDV -e 20 -c 0 -i 18 -a 0 -x {7.1 4.1 -1 ------- null}
- -t 0.031192762846309 -s 7 -d 4 -p rtProtoDV -e 20 -c 0 -i 18 -a 0 -x {7.1 4.1 -1 ------- null}
h -t 0.031192762846309 -s 7 -d 4 -p rtProtoDV -e 20 -c 0 -i 18 -a 0 -x {7.1 4.1 -1 ------- null}
+ -t 0.031192762846309 -s 7 -d 5 -p rtProtoDV -e 20 -c 0 -i 19 -a 0 -x {7.1 5.1 -1 ------- null}
- -t 0.031192762846309 -s 7 -d 5 -p rtProtoDV -e 20 -c 0 -i 19 -a 0 -x {7.1 5.1 -1 ------- null}
h -t 0.031192762846309 -s 7 -d 5 -p rtProtoDV -e 20 -c 0 -i 19 -a 0 -x {7.1 5.1 -1 ------- null}
+ -t 0.031192762846309 -s 7 -d 8 -p rtProtoDV -e 20 -c 0 -i 20 -a 0 -x {7.1 8.1 -1 ------- null}
- -t 0.031192762846309 -s 7 -d 8 -p rtProtoDV -e 20 -c 0 -i 20 -a 0 -x {7.1 8.1 -1 ------- null}
h -t 0.031192762846309 -s 7 -d 8 -p rtProtoDV -e 20 -c 0 -i 20 -a 0 -x {7.1 8.1 -1 ------- null}
r -t 0.032191121820668 -s 4 -d 3 -p rtProtoDV -e 20 -c 0 -i 8 -a 0 -x {4.1 3.1 -1 ------- null}
+ -t 0.032191121820668 -s 3 -d 4 -p rtProtoDV -e 20 -c 0 -i 21 -a 0 -x {3.1 4.1 -1 ------- null}
- -t 0.032191121820668 -s 3 -d 4 -p rtProtoDV -e 20 -c 0 -i 21 -a 0 -x {3.1 4.1 -1 ------- null}
h -t 0.032191121820668 -s 3 -d 4 -p rtProtoDV -e 20 -c 0 -i 21 -a 0 -x {3.1 4.1 -1 ------- null}
+ -t 0.032191121820668 -s 3 -d 6 -p rtProtoDV -e 20 -c 0 -i 22 -a 0 -x {3.1 6.1 -1 ------- null}
- -t 0.032191121820668 -s 3 -d 6 -p rtProtoDV -e 20 -c 0 -i 22 -a 0 -x {3.1 6.1 -1 ------- null}
h -t 0.032191121820668 -s 3 -d 6 -p rtProtoDV -e 20 -c 0 -i 22 -a 0 -x {3.1 6.1 -1 ------- null}
r -t 0.032207121820668 -s 1 -d 2 -p rtProtoDV -e 20 -c 0 -i 5 -a 0 -x {1.1 2.1 -1 ------- null}
+ -t 0.032207121820668 -s 2 -d 1 -p rtProtoDV -e 20 -c 0 -i 23 -a 0 -x {2.1 1.1 -1 ------- null}
- -t 0.032207121820668 -s 2 -d 1 -p rtProtoDV -e 20 -c 0 -i 23 -a 0 -x {2.1 1.1 -1 ------- null}
h -t 0.032207121820668 -s 2 -d 1 -p rtProtoDV -e 20 -c 0 -i 23 -a 0 -x {2.1 1.1 -1 ------- null}
+ -t 0.032207121820668 -s 2 -d 4 -p rtProtoDV -e 20 -c 0 -i 24 -a 0 -x {2.1 4.1 -1 ------- null}
- -t 0.032207121820668 -s 2 -d 4 -p rtProtoDV -e 20 -c 0 -i 24 -a 0 -x {2.1 4.1 -1 ------- null}
h -t 0.032207121820668 -s 2 -d 4 -p rtProtoDV -e 20 -c 0 -i 24 -a 0 -x {2.1 4.1 -1 ------- null}
r -t 0.0341950006085468 -s 4 -d 2 -p rtProtoDV -e 20 -c 0 -i 7 -a 0 -x {4.1 2.1 -1 ------- null}
+ -t 0.0341950006085468 -s 2 -d 1 -p rtProtoDV -e 20 -c 0 -i 25 -a 0 -x {2.1 1.1 -1 ------- null}
- -t 0.0341950006085468 -s 2 -d 1 -p rtProtoDV -e 20 -c 0 -i 25 -a 0 -x {2.1 1.1 -1 ------- null}
h -t 0.0341950006085468 -s 2 -d 1 -p rtProtoDV -e 20 -c 0 -i 25 -a 0 -x {2.1 1.1 -1 ------- null}
+ -t 0.0341950006085468 -s 2 -d 4 -p rtProtoDV -e 20 -c 0 -i 26 -a 0 -x {2.1 4.1 -1 ------- null}
- -t 0.0341950006085468 -s 2 -d 4 -p rtProtoDV -e 20 -c 0 -i 26 -a 0 -x {2.1 4.1 -1 ------- null}
h -t 0.0341950006085468 -s 2 -d 4 -p rtProtoDV -e 20 -c 0 -i 26 -a 0 -x {2.1 4.1 -1 ------- null}
r -t 0.0362497884873346 -s 0 -d 1 -p rtProtoDV -e 20 -c 0 -i 13 -a 0 -x {0.2 1.1 -1 ------- null}
r -t 0.037191121820668 -s 4 -d 5 -p rtProtoDV -e 20 -c 0 -i 9 -a 0 -x {4.1 5.1 -1 ------- null}
+ -t 0.037191121820668 -s 5 -d 4 -p rtProtoDV -e 20 -c 0 -i 27 -a 0 -x {5.1 4.1 -1 ------- null}
- -t 0.037191121820668 -s 5 -d 4 -p rtProtoDV -e 20 -c 0 -i 27 -a 0 -x {5.1 4.1 -1 ------- null}
h -t 0.037191121820668 -s 5 -d 4 -p rtProtoDV -e 20 -c 0 -i 27 -a 0 -x {5.1 4.1 -1 ------- null}
+ -t 0.037191121820668 -s 5 -d 7 -p rtProtoDV -e 20 -c 0 -i 28 -a 0 -x {5.1 7.1 -1 ------- null}
- -t 0.037191121820668 -s 5 -d 7 -p rtProtoDV -e 20 -c 0 -i 28 -a 0 -x {5.1 7.1 -1 ------- null}
h -t 0.037191121820668 -s 5 -d 7 -p rtProtoDV -e 20 -c 0 -i 28 -a 0 -x {5.1 7.1 -1 ------- null}
+ -t 0.037191121820668 -s 5 -d 9 -p rtProtoDV -e 20 -c 0 -i 29 -a 0 -x {5.1 9.1 -1 ------- null}
- -t 0.037191121820668 -s 5 -d 9 -p rtProtoDV -e 20 -c 0 -i 29 -a 0 -x {5.1 9.1 -1 ------- null}
h -t 0.037191121820668 -s 5 -d 9 -p rtProtoDV -e 20 -c 0 -i 29 -a 0 -x {5.1 9.1 -1 ------- null}
+ -t 0.037191121820668 -s 5 -d 10 -p rtProtoDV -e 20 -c 0 -i 30 -a 0 -x {5.1 10.1 -1 ------- null}
- -t 0.037191121820668 -s 5 -d 10 -p rtProtoDV -e 20 -c 0 -i 30 -a 0 -x {5.1 10.1 -1 ------- null}
h -t 0.037191121820668 -s 5 -d 10 -p rtProtoDV -e 20 -c 0 -i 30 -a 0 -x {5.1 10.1 -1 ------- null}
r -t 0.038191121820668 -s 4 -d 0 -p rtProtoDV -e 20 -c 0 -i 6 -a 0 -x {4.1 0.2 -1 ------- null}
+ -t 0.038191121820668 -s 0 -d 1 -p rtProtoDV -e 20 -c 0 -i 31 -a 0 -x {0.2 1.1 -1 ------- null}
- -t 0.038191121820668 -s 0 -d 1 -p rtProtoDV -e 20 -c 0 -i 31 -a 0 -x {0.2 1.1 -1 ------- null}
h -t 0.038191121820668 -s 0 -d 1 -p rtProtoDV -e 20 -c 0 -i 31 -a 0 -x {0.2 1.1 -1 ------- null}
+ -t 0.038191121820668 -s 0 -d 4 -p rtProtoDV -e 20 -c 0 -i 32 -a 0 -x {0.2 4.1 -1 ------- null}
- -t 0.038191121820668 -s 0 -d 4 -p rtProtoDV -e 20 -c 0 -i 32 -a 0 -x {0.2 4.1 -1 ------- null}
h -t 0.038191121820668 -s 0 -d 4 -p rtProtoDV -e 20 -c 0 -i 32 -a 0 -x {0.2 4.1 -1 ------- null}
r -t 0.039207121820668 -s 6 -d 4 -p rtProtoDV -e 20 -c 0 -i 16 -a 0 -x {6.1 4.1 -1 ------- null}
+ -t 0.039207121820668 -s 4 -d 0 -p rtProtoDV -e 20 -c 0 -i 33 -a 0 -x {4.1 0.2 -1 ------- null}
- -t 0.039207121820668 -s 4 -d 0 -p rtProtoDV -e 20 -c 0 -i 33 -a 0 -x {4.1 0.2 -1 ------- null}
h -t 0.039207121820668 -s 4 -d 0 -p rtProtoDV -e 20 -c 0 -i 33 -a 0 -x {4.1 0.2 -1 ------- null}
+ -t 0.039207121820668 -s 4 -d 2 -p rtProtoDV -e 20 -c 0 -i 34 -a 0 -x {4.1 2.1 -1 ------- null}
- -t 0.039207121820668 -s 4 -d 2 -p rtProtoDV -e 20 -c 0 -i 34 -a 0 -x {4.1 2.1 -1 ------- null}
h -t 0.039207121820668 -s 4 -d 2 -p rtProtoDV -e 20 -c 0 -i 34 -a 0 -x {4.1 2.1 -1 ------- null}
+ -t 0.039207121820668 -s 4 -d 3 -p rtProtoDV -e 20 -c 0 -i 35 -a 0 -x {4.1 3.1 -1 ------- null}
- -t 0.039207121820668 -s 4 -d 3 -p rtProtoDV -e 20 -c 0 -i 35 -a 0 -x {4.1 3.1 -1 ------- null}
h -t 0.039207121820668 -s 4 -d 3 -p rtProtoDV -e 20 -c 0 -i 35 -a 0 -x {4.1 3.1 -1 ------- null}
+ -t 0.039207121820668 -s 4 -d 5 -p rtProtoDV -e 20 -c 0 -i 36 -a 0 -x {4.1 5.1 -1 ------- null}
- -t 0.039207121820668 -s 4 -d 5 -p rtProtoDV -e 20 -c 0 -i 36 -a 0 -x {4.1 5.1 -1 ------- null}
h -t 0.039207121820668 -s 4 -d 5 -p rtProtoDV -e 20 -c 0 -i 36 -a 0 -x {4.1 5.1 -1 ------- null}
+ -t 0.039207121820668 -s 4 -d 6 -p rtProtoDV -e 20 -c 0 -i 37 -a 0 -x {4.1 6.1 -1 ------- null}
- -t 0.039207121820668 -s 4 -d 6 -p rtProtoDV -e 20 -c 0 -i 37 -a 0 -x {4.1 6.1 -1 ------- null}
h -t 0.039207121820668 -s 4 -d 6 -p rtProtoDV -e 20 -c 0 -i 37 -a 0 -x {4.1 6.1 -1 ------- null}
+ -t 0.039207121820668 -s 4 -d 7 -p rtProtoDV -e 20 -c 0 -i 38 -a 0 -x {4.1 7.1 -1 ------- null}
- -t 0.039207121820668 -s 4 -d 7 -p rtProtoDV -e 20 -c 0 -i 38 -a 0 -x {4.1 7.1 -1 ------- null}
h -t 0.039207121820668 -s 4 -d 7 -p rtProtoDV -e 20 -c 0 -i 38 -a 0 -x {4.1 7.1 -1 ------- null}
r -t 0.0394172786541084 -s 13 -d 11 -p rtProtoDV -e 20 -c 0 -i 12 -a 0 -x {13.1 11.1 -1 ------- null}
r -t 0.0432050705386167 -s 7 -d 4 -p rtProtoDV -e 20 -c 0 -i 18 -a 0 -x {7.1 4.1 -1 ------- null}
r -t 0.0432337884873346 -s 0 -d 4 -p rtProtoDV -e 20 -c 0 -i 14 -a 0 -x {0.2 4.1 -1 ------- null}
+ -t 0.04406133552271 -s 3 -d 4 -p rtProtoDV -e 20 -c 0 -i 39 -a 0 -x {3.1 4.1 -1 ------- null}
- -t 0.04406133552271 -s 3 -d 4 -p rtProtoDV -e 20 -c 0 -i 39 -a 0 -x {3.1 4.1 -1 ------- null}
h -t 0.04406133552271 -s 3 -d 4 -p rtProtoDV -e 20 -c 0 -i 39 -a 0 -x {3.1 4.1 -1 ------- null}
+ -t 0.04406133552271 -s 3 -d 6 -p rtProtoDV -e 20 -c 0 -i 40 -a 0 -x {3.1 6.1 -1 ------- null}
- -t 0.04406133552271 -s 3 -d 6 -p rtProtoDV -e 20 -c 0 -i 40 -a 0 -x {3.1 6.1 -1 ------- null}
h -t 0.04406133552271 -s 3 -d 6 -p rtProtoDV -e 20 -c 0 -i 40 -a 0 -x {3.1 6.1 -1 ------- null}
r -t 0.0452017884873346 -s 3 -d 4 -p rtProtoDV -e 20 -c 0 -i 21 -a 0 -x {3.1 4.1 -1 ------- null}
r -t 0.0452115662651124 -s 6 -d 8 -p rtProtoDV -e 20 -c 0 -i 17 -a 0 -x {6.1 8.1 -1 ------- null}
+ -t 0.0452115662651124 -s 8 -d 6 -p rtProtoDV -e 20 -c 0 -i 41 -a 0 -x {8.1 6.1 -1 ------- null}
- -t 0.0452115662651124 -s 8 -d 6 -p rtProtoDV -e 20 -c 0 -i 41 -a 0 -x {8.1 6.1 -1 ------- null}
h -t 0.0452115662651124 -s 8 -d 6 -p rtProtoDV -e 20 -c 0 -i 41 -a 0 -x {8.1 6.1 -1 ------- null}
+ -t 0.0452115662651124 -s 8 -d 7 -p rtProtoDV -e 20 -c 0 -i 42 -a 0 -x {8.1 7.1 -1 ------- null}
- -t 0.0452115662651124 -s 8 -d 7 -p rtProtoDV -e 20 -c 0 -i 42 -a 0 -x {8.1 7.1 -1 ------- null}
h -t 0.0452115662651124 -s 8 -d 7 -p rtProtoDV -e 20 -c 0 -i 42 -a 0 -x {8.1 7.1 -1 ------- null}
+ -t 0.0452115662651124 -s 8 -d 11 -p rtProtoDV -e 20 -c 0 -i 43 -a 0 -x {8.1 11.1 -1 ------- null}
- -t 0.0452115662651124 -s 8 -d 11 -p rtProtoDV -e 20 -c 0 -i 43 -a 0 -x {8.1 11.1 -1 ------- null}
h -t 0.0452115662651124 -s 8 -d 11 -p rtProtoDV -e 20 -c 0 -i 43 -a 0 -x {8.1 11.1 -1 ------- null}
+ -t 0.0470694271135467 -s 19 -d 14 -p rtProtoDV -e 20 -c 0 -i 44 -a 0 -x {19.1 14.1 -1 ------- null}
- -t 0.0470694271135467 -s 19 -d 14 -p rtProtoDV -e 20 -c 0 -i 44 -a 0 -x {19.1 14.1 -1 ------- null}
h -t 0.0470694271135467 -s 19 -d 14 -p rtProtoDV -e 20 -c 0 -i 44 -a 0 -x {19.1 14.1 -1 ------- null}
+ -t 0.0470694271135467 -s 19 -d 15 -p rtProtoDV -e 20 -c 0 -i 45 -a 0 -x {19.1 15.1 -1 ------- null}
- -t 0.0470694271135467 -s 19 -d 15 -p rtProtoDV -e 20 -c 0 -i 45 -a 0 -x {19.1 15.1 -1 ------- null}
h -t 0.0470694271135467 -s 19 -d 15 -p rtProtoDV -e 20 -c 0 -i 45 -a 0 -x {19.1 15.1 -1 ------- null}
r -t 0.0472216672752134 -s 2 -d 4 -p rtProtoDV -e 20 -c 0 -i 24 -a 0 -x {2.1 4.1 -1 ------- null}
r -t 0.0482011838989406 -s 7 -d 8 -p rtProtoDV -e 20 -c 0 -i 20 -a 0 -x {7.1 8.1 -1 ------- null}
+ -t 0.0482011838989406 -s 8 -d 6 -p rtProtoDV -e 20 -c 0 -i 46 -a 0 -x {8.1 6.1 -1 ------- null}
- -t 0.0482011838989406 -s 8 -d 6 -p rtProtoDV -e 20 -c 0 -i 46 -a 0 -x {8.1 6.1 -1 ------- null}
h -t 0.0482011838989406 -s 8 -d 6 -p rtProtoDV -e 20 -c 0 -i 46 -a 0 -x {8.1 6.1 -1 ------- null}
+ -t 0.0482011838989406 -s 8 -d 7 -p rtProtoDV -e 20 -c 0 -i 47 -a 0 -x {8.1 7.1 -1 ------- null}
- -t 0.0482011838989406 -s 8 -d 7 -p rtProtoDV -e 20 -c 0 -i 47 -a 0 -x {8.1 7.1 -1 ------- null}
h -t 0.0482011838989406 -s 8 -d 7 -p rtProtoDV -e 20 -c 0 -i 47 -a 0 -x {8.1 7.1 -1 ------- null}
+ -t 0.0482011838989406 -s 8 -d 11 -p rtProtoDV -e 20 -c 0 -i 48 -a 0 -x {8.1 11.1 -1 ------- null}
- -t 0.0482011838989406 -s 8 -d 11 -p rtProtoDV -e 20 -c 0 -i 48 -a 0 -x {8.1 11.1 -1 ------- null}
h -t 0.0482011838989406 -s 8 -d 11 -p rtProtoDV -e 20 -c 0 -i 48 -a 0 -x {8.1 11.1 -1 ------- null}
r -t 0.0482137884873346 -s 6 -d 3 -p rtProtoDV -e 20 -c 0 -i 15 -a 0 -x {6.1 3.1 -1 ------- null}
+ -t 0.0482137884873346 -s 3 -d 4 -p rtProtoDV -e 20 -c 0 -i 49 -a 0 -x {3.1 4.1 -1 ------- null}
- -t 0.0482137884873346 -s 3 -d 4 -p rtProtoDV -e 20 -c 0 -i 49 -a 0 -x {3.1 4.1 -1 ------- null}
h -t 0.0482137884873346 -s 3 -d 4 -p rtProtoDV -e 20 -c 0 -i 49 -a 0 -x {3.1 4.1 -1 ------- null}
+ -t 0.0482137884873346 -s 3 -d 6 -p rtProtoDV -e 20 -c 0 -i 50 -a 0 -x {3.1 6.1 -1 ------- null}
- -t 0.0482137884873346 -s 3 -d 6 -p rtProtoDV -e 20 -c 0 -i 50 -a 0 -x {3.1 6.1 -1 ------- null}
h -t 0.0482137884873346 -s 3 -d 6 -p rtProtoDV -e 20 -c 0 -i 50 -a 0 -x {3.1 6.1 -1 ------- null}
r -t 0.0492095460630922 -s 2 -d 4 -p rtProtoDV -e 20 -c 0 -i 26 -a 0 -x {2.1 4.1 -1 ------- null}
r -t 0.0492204551540013 -s 4 -d 6 -p rtProtoDV -e 20 -c 0 -i 37 -a 0 -x {4.1 6.1 -1 ------- null}
r -t 0.050200762846309 -s 7 -d 5 -p rtProtoDV -e 20 -c 0 -i 19 -a 0 -x {7.1 5.1 -1 ------- null}
+ -t 0.050200762846309 -s 5 -d 4 -p rtProtoDV -e 20 -c 0 -i 51 -a 0 -x {5.1 4.1 -1 ------- null}
- -t 0.050200762846309 -s 5 -d 4 -p rtProtoDV -e 20 -c 0 -i 51 -a 0 -x {5.1 4.1 -1 ------- null}
h -t 0.050200762846309 -s 5 -d 4 -p rtProtoDV -e 20 -c 0 -i 51 -a 0 -x {5.1 4.1 -1 ------- null}
+ -t 0.050200762846309 -s 5 -d 7 -p rtProtoDV -e 20 -c 0 -i 52 -a 0 -x {5.1 7.1 -1 ------- null}
- -t 0.050200762846309 -s 5 -d 7 -p rtProtoDV -e 20 -c 0 -i 52 -a 0 -x {5.1 7.1 -1 ------- null}
h -t 0.050200762846309 -s 5 -d 7 -p rtProtoDV -e 20 -c 0 -i 52 -a 0 -x {5.1 7.1 -1 ------- null}
+ -t 0.050200762846309 -s 5 -d 9 -p rtProtoDV -e 20 -c 0 -i 53 -a 0 -x {5.1 9.1 -1 ------- null}
- -t 0.050200762846309 -s 5 -d 9 -p rtProtoDV -e 20 -c 0 -i 53 -a 0 -x {5.1 9.1 -1 ------- null}
h -t 0.050200762846309 -s 5 -d 9 -p rtProtoDV -e 20 -c 0 -i 53 -a 0 -x {5.1 9.1 -1 ------- null}
+ -t 0.050200762846309 -s 5 -d 10 -p rtProtoDV -e 20 -c 0 -i 54 -a 0 -x {5.1 10.1 -1 ------- null}
- -t 0.050200762846309 -s 5 -d 10 -p rtProtoDV -e 20 -c 0 -i 54 -a 0 -x {5.1 10.1 -1 ------- null}
h -t 0.050200762846309 -s 5 -d 10 -p rtProtoDV -e 20 -c 0 -i 54 -a 0 -x {5.1 10.1 -1 ------- null}
r -t 0.0502177884873346 -s 0 -d 1 -p rtProtoDV -e 20 -c 0 -i 31 -a 0 -x {0.2 1.1 -1 ------- null}
+ -t 0.0502177884873346 -s 1 -d 0 -p rtProtoDV -e 20 -c 0 -i 55 -a 0 -x {1.1 0.2 -1 ------- null}
- -t 0.0502177884873346 -s 1 -d 0 -p rtProtoDV -e 20 -c 0 -i 55 -a 0 -x {1.1 0.2 -1 ------- null}
h -t 0.0502177884873346 -s 1 -d 0 -p rtProtoDV -e 20 -c 0 -i 55 -a 0 -x {1.1 0.2 -1 ------- null}
+ -t 0.0502177884873346 -s 1 -d 2 -p rtProtoDV -e 20 -c 0 -i 56 -a 0 -x {1.1 2.1 -1 ------- null}
- -t 0.0502177884873346 -s 1 -d 2 -p rtProtoDV -e 20 -c 0 -i 56 -a 0 -x {1.1 2.1 -1 ------- null}
h -t 0.0502177884873346 -s 1 -d 2 -p rtProtoDV -e 20 -c 0 -i 56 -a 0 -x {1.1 2.1 -1 ------- null}
r -t 0.051211121820668 -s 3 -d 6 -p rtProtoDV -e 20 -c 0 -i 22 -a 0 -x {3.1 6.1 -1 ------- null}
r -t 0.0512194295129757 -s 4 -d 7 -p rtProtoDV -e 20 -c 0 -i 38 -a 0 -x {4.1 7.1 -1 ------- null}
r -t 0.0520872048913245 -s 19 -d 14 -p rtProtoDV -e 20 -c 0 -i 44 -a 0 -x {19.1 14.1 -1 ------- null}
+ -t 0.0520872048913245 -s 14 -d 9 -p rtProtoDV -e 20 -c 0 -i 57 -a 0 -x {14.1 9.1 -1 ------- null}
- -t 0.0520872048913245 -s 14 -d 9 -p rtProtoDV -e 20 -c 0 -i 57 -a 0 -x {14.1 9.1 -1 ------- null}
h -t 0.0520872048913245 -s 14 -d 9 -p rtProtoDV -e 20 -c 0 -i 57 -a 0 -x {14.1 9.1 -1 ------- null}
+ -t 0.0520872048913245 -s 14 -d 16 -p rtProtoDV -e 20 -c 0 -i 58 -a 0 -x {14.1 16.1 -1 ------- null}
- -t 0.0520872048913245 -s 14 -d 16 -p rtProtoDV -e 20 -c 0 -i 58 -a 0 -x {14.1 16.1 -1 ------- null}
h -t 0.0520872048913245 -s 14 -d 16 -p rtProtoDV -e 20 -c 0 -i 58 -a 0 -x {14.1 16.1 -1 ------- null}
+ -t 0.0520872048913245 -s 14 -d 17 -p rtProtoDV -e 20 -c 0 -i 59 -a 0 -x {14.1 17.2 -1 ------- null}
- -t 0.0520872048913245 -s 14 -d 17 -p rtProtoDV -e 20 -c 0 -i 59 -a 0 -x {14.1 17.2 -1 ------- null}
h -t 0.0520872048913245 -s 14 -d 17 -p rtProtoDV -e 20 -c 0 -i 59 -a 0 -x {14.1 17.2 -1 ------- null}
+ -t 0.0520872048913245 -s 14 -d 18 -p rtProtoDV -e 20 -c 0 -i 60 -a 0 -x {14.1 18.1 -1 ------- null}
- -t 0.0520872048913245 -s 14 -d 18 -p rtProtoDV -e 20 -c 0 -i 60 -a 0 -x {14.1 18.1 -1 ------- null}
h -t 0.0520872048913245 -s 14 -d 18 -p rtProtoDV -e 20 -c 0 -i 60 -a 0 -x {14.1 18.1 -1 ------- null}
+ -t 0.0520872048913245 -s 14 -d 19 -p rtProtoDV -e 20 -c 0 -i 61 -a 0 -x {14.1 19.1 -1 ------- null}
- -t 0.0520872048913245 -s 14 -d 19 -p rtProtoDV -e 20 -c 0 -i 61 -a 0 -x {14.1 19.1 -1 ------- null}
h -t 0.0520872048913245 -s 14 -d 19 -p rtProtoDV -e 20 -c 0 -i 61 -a 0 -x {14.1 19.1 -1 ------- null}
r -t 0.0522177884873346 -s 2 -d 1 -p rtProtoDV -e 20 -c 0 -i 23 -a 0 -x {2.1 1.1 -1 ------- null}
r -t 0.0522177884873346 -s 4 -d 3 -p rtProtoDV -e 20 -c 0 -i 35 -a 0 -x {4.1 3.1 -1 ------- null}
r -t 0.0542056672752134 -s 2 -d 1 -p rtProtoDV -e 20 -c 0 -i 25 -a 0 -x {2.1 1.1 -1 ------- null}
r -t 0.0542216672752134 -s 4 -d 2 -p rtProtoDV -e 20 -c 0 -i 34 -a 0 -x {4.1 2.1 -1 ------- null}
+ -t 0.0542216672752134 -s 2 -d 1 -p rtProtoDV -e 20 -c 0 -i 62 -a 0 -x {2.1 1.1 -1 ------- null}
- -t 0.0542216672752134 -s 2 -d 1 -p rtProtoDV -e 20 -c 0 -i 62 -a 0 -x {2.1 1.1 -1 ------- null}
h -t 0.0542216672752134 -s 2 -d 1 -p rtProtoDV -e 20 -c 0 -i 62 -a 0 -x {2.1 1.1 -1 ------- null}
+ -t 0.0542216672752134 -s 2 -d 4 -p rtProtoDV -e 20 -c 0 -i 63 -a 0 -x {2.1 4.1 -1 ------- null}
- -t 0.0542216672752134 -s 2 -d 4 -p rtProtoDV -e 20 -c 0 -i 63 -a 0 -x {2.1 4.1 -1 ------- null}
h -t 0.0542216672752134 -s 2 -d 4 -p rtProtoDV -e 20 -c 0 -i 63 -a 0 -x {2.1 4.1 -1 ------- null}
r -t 0.0552017884873346 -s 5 -d 4 -p rtProtoDV -e 20 -c 0 -i 27 -a 0 -x {5.1 4.1 -1 ------- null}
+ -t 0.0552017884873346 -s 4 -d 0 -p rtProtoDV -e 20 -c 0 -i 64 -a 0 -x {4.1 0.2 -1 ------- null}
- -t 0.0552017884873346 -s 4 -d 0 -p rtProtoDV -e 20 -c 0 -i 64 -a 0 -x {4.1 0.2 -1 ------- null}
h -t 0.0552017884873346 -s 4 -d 0 -p rtProtoDV -e 20 -c 0 -i 64 -a 0 -x {4.1 0.2 -1 ------- null}
+ -t 0.0552017884873346 -s 4 -d 2 -p rtProtoDV -e 20 -c 0 -i 65 -a 0 -x {4.1 2.1 -1 ------- null}
- -t 0.0552017884873346 -s 4 -d 2 -p rtProtoDV -e 20 -c 0 -i 65 -a 0 -x {4.1 2.1 -1 ------- null}
h -t 0.0552017884873346 -s 4 -d 2 -p rtProtoDV -e 20 -c 0 -i 65 -a 0 -x {4.1 2.1 -1 ------- null}
+ -t 0.0552017884873346 -s 4 -d 3 -p rtProtoDV -e 20 -c 0 -i 66 -a 0 -x {4.1 3.1 -1 ------- null}
- -t 0.0552017884873346 -s 4 -d 3 -p rtProtoDV -e 20 -c 0 -i 66 -a 0 -x {4.1 3.1 -1 ------- null}
h -t 0.0552017884873346 -s 4 -d 3 -p rtProtoDV -e 20 -c 0 -i 66 -a 0 -x {4.1 3.1 -1 ------- null}
+ -t 0.0552017884873346 -s 4 -d 5 -p rtProtoDV -e 20 -c 0 -i 67 -a 0 -x {4.1 5.1 -1 ------- null}
- -t 0.0552017884873346 -s 4 -d 5 -p rtProtoDV -e 20 -c 0 -i 67 -a 0 -x {4.1 5.1 -1 ------- null}
h -t 0.0552017884873346 -s 4 -d 5 -p rtProtoDV -e 20 -c 0 -i 67 -a 0 -x {4.1 5.1 -1 ------- null}
+ -t 0.0552017884873346 -s 4 -d 6 -p rtProtoDV -e 20 -c 0 -i 68 -a 0 -x {4.1 6.1 -1 ------- null}
- -t 0.0552017884873346 -s 4 -d 6 -p rtProtoDV -e 20 -c 0 -i 68 -a 0 -x {4.1 6.1 -1 ------- null}
h -t 0.0552017884873346 -s 4 -d 6 -p rtProtoDV -e 20 -c 0 -i 68 -a 0 -x {4.1 6.1 -1 ------- null}
+ -t 0.0552017884873346 -s 4 -d 7 -p rtProtoDV -e 20 -c 0 -i 69 -a 0 -x {4.1 7.1 -1 ------- null}
- -t 0.0552017884873346 -s 4 -d 7 -p rtProtoDV -e 20 -c 0 -i 69 -a 0 -x {4.1 7.1 -1 ------- null}
h -t 0.0552017884873346 -s 4 -d 7 -p rtProtoDV -e 20 -c 0 -i 69 -a 0 -x {4.1 7.1 -1 ------- null}
r -t 0.0552034295129757 -s 5 -d 10 -p rtProtoDV -e 20 -c 0 -i 30 -a 0 -x {5.1 10.1 -1 ------- null}
+ -t 0.0552034295129757 -s 10 -d 5 -p rtProtoDV -e 20 -c 0 -i 70 -a 0 -x {10.1 5.1 -1 ------- null}
- -t 0.0552034295129757 -s 10 -d 5 -p rtProtoDV -e 20 -c 0 -i 70 -a 0 -x {10.1 5.1 -1 ------- null}
h -t 0.0552034295129757 -s 10 -d 5 -p rtProtoDV -e 20 -c 0 -i 70 -a 0 -x {10.1 5.1 -1 ------- null}
+ -t 0.0552034295129757 -s 10 -d 12 -p rtProtoDV -e 20 -c 0 -i 71 -a 0 -x {10.1 12.1 -1 ------- null}
- -t 0.0552034295129757 -s 10 -d 12 -p rtProtoDV -e 20 -c 0 -i 71 -a 0 -x {10.1 12.1 -1 ------- null}
h -t 0.0552034295129757 -s 10 -d 12 -p rtProtoDV -e 20 -c 0 -i 71 -a 0 -x {10.1 12.1 -1 ------- null}
r -t 0.056199121820668 -s 5 -d 7 -p rtProtoDV -e 20 -c 0 -i 28 -a 0 -x {5.1 7.1 -1 ------- null}
+ -t 0.056199121820668 -s 7 -d 4 -p rtProtoDV -e 20 -c 0 -i 72 -a 0 -x {7.1 4.1 -1 ------- null}
- -t 0.056199121820668 -s 7 -d 4 -p rtProtoDV -e 20 -c 0 -i 72 -a 0 -x {7.1 4.1 -1 ------- null}
h -t 0.056199121820668 -s 7 -d 4 -p rtProtoDV -e 20 -c 0 -i 72 -a 0 -x {7.1 4.1 -1 ------- null}
+ -t 0.056199121820668 -s 7 -d 5 -p rtProtoDV -e 20 -c 0 -i 73 -a 0 -x {7.1 5.1 -1 ------- null}
- -t 0.056199121820668 -s 7 -d 5 -p rtProtoDV -e 20 -c 0 -i 73 -a 0 -x {7.1 5.1 -1 ------- null}
h -t 0.056199121820668 -s 7 -d 5 -p rtProtoDV -e 20 -c 0 -i 73 -a 0 -x {7.1 5.1 -1 ------- null}
+ -t 0.056199121820668 -s 7 -d 8 -p rtProtoDV -e 20 -c 0 -i 74 -a 0 -x {7.1 8.1 -1 ------- null}
- -t 0.056199121820668 -s 7 -d 8 -p rtProtoDV -e 20 -c 0 -i 74 -a 0 -x {7.1 8.1 -1 ------- null}
h -t 0.056199121820668 -s 7 -d 8 -p rtProtoDV -e 20 -c 0 -i 74 -a 0 -x {7.1 8.1 -1 ------- null}
r -t 0.0562204551540013 -s 8 -d 11 -p rtProtoDV -e 20 -c 0 -i 43 -a 0 -x {8.1 11.1 -1 ------- null}
+ -t 0.0562204551540013 -s 11 -d 8 -p rtProtoDV -e 20 -c 0 -i 75 -a 0 -x {11.1 8.1 -1 ------- null}
- -t 0.0562204551540013 -s 11 -d 8 -p rtProtoDV -e 20 -c 0 -i 75 -a 0 -x {11.1 8.1 -1 ------- null}
h -t 0.0562204551540013 -s 11 -d 8 -p rtProtoDV -e 20 -c 0 -i 75 -a 0 -x {11.1 8.1 -1 ------- null}
+ -t 0.0562204551540013 -s 11 -d 9 -p rtProtoDV -e 20 -c 0 -i 76 -a 0 -x {11.1 9.1 -1 ------- null}
- -t 0.0562204551540013 -s 11 -d 9 -p rtProtoDV -e 20 -c 0 -i 76 -a 0 -x {11.1 9.1 -1 ------- null}
h -t 0.0562204551540013 -s 11 -d 9 -p rtProtoDV -e 20 -c 0 -i 76 -a 0 -x {11.1 9.1 -1 ------- null}
+ -t 0.0562204551540013 -s 11 -d 13 -p rtProtoDV -e 20 -c 0 -i 77 -a 0 -x {11.1 13.1 -1 ------- null}
- -t 0.0562204551540013 -s 11 -d 13 -p rtProtoDV -e 20 -c 0 -i 77 -a 0 -x {11.1 13.1 -1 ------- null}
h -t 0.0562204551540013 -s 11 -d 13 -p rtProtoDV -e 20 -c 0 -i 77 -a 0 -x {11.1 13.1 -1 ------- null}
+ -t 0.056904124122534 -s 15 -d 12 -p rtProtoDV -e 20 -c 0 -i 78 -a 0 -x {15.1 12.1 -1 ------- null}